128 
# CELL(abcABC): 5.98343 5.98343 5.98343 90.00000 90.00000 90.00000 Step: 0 Bead: 0 positions{angstrom} cell{angstrom}
H 5.69798e+00 2.99162e+00 1.17554e+00
H 4.58031e-03 4.56403e+00 1.66322e+00
H 7.15626e-01 5.66605e+00 1.76620e+00
H 2.51071e+00 1.89317e+00 6.04944e-01
H 2.65687e+00 9.63246e-01 1.50846e+00
H 1.42812e+00 4.33543e+00 7.70587e-01
H 2.03546e+00 2.45489e+00 3.22763e+00
H 4.01637e+00 1.52259e+00 4.02406e+00
H 4.12285e+00 5.93946e+00 3.16497e+00
H 5.29512e+00 4.03513e+00 1.76042e+00
H 3.38128e+00 1.09170e-01 4.33296e+00
H 5.32189e+00 2.74165e+00 5.15455e+00
H 2.58222e+00 1.95133e+00 5.45941e+00
H 2.11584e+00 2.01867e-01 3.56281e+00
H 2.96844e-01 2.49389e+00 2.57143e+00
H 3.24839e+00 4.06798e+00 2.88480e+00
H 3.58321e+00 1.38336e+00 3.51622e+00
H 1.41674e+00 5.85602e+00 3.67770e+00
H 2.76915e+00 1.87692e+00 1.89298e+00
H 4.53746e-01 7.72722e-01 9.05098e-01
H 5.54954e+00 1.87708e+00 2.61098e+00
H 5.38256e-01 1.27017e+00 7.68688e-01
H 2.52876e+00 5.38182e+00 4.90308e+00
H 2.53320e+00 5.18497e+00 2.57167e+00
H 4.52348e+00 5.77357e+00 6.40901e-01
H 5.29316e+00 5.28646e+00 5.24890e-01
H 5.14655e-01 3.08456e+00 5.00792e+00
H 1.05547e+00 3.55214e+00 1.42412e+00
H 4.28367e+00 3.72113e+00 3.03350e+00
H 5.13980e+00 1.53470e+00 1.47223e+00
H 5.07622e+00 1.27779e+00 2.99652e+00
H 5.05526e+00 8.12220e-01 1.93894e-01
H 5.34253e+00 5.97207e+00 1.52922e+00
H 2.46414e+00 5.13705e-01 5.58215e+00
H 2.41721e+00 3.77905e+00 2.49070e+00
H 6.43615e-01 4.83143e+00 2.59194e+00
H 3.64495e+00 2.84692e+00 2.14301e+00
H 3.13723e+00 4.95805e+00 5.88448e+00
H 5.81456e+00 4.62894e+00 3.63134e+00
H 1.36810e+00 8.48308e-01 5.60653e+00
H 6.94892e-01 1.98413e+00 1.74670e+00
H 4.67091e+00 4.51638e+00 4.16889e+00
H 3.13092e+00 3.37521e+00 4.15956e+00
H 1.42891e+00 8.43684e-01 2.40164e+00
H 1.53370e+00 2.89429e+00 5.73388e+00
H 1.54920e-01 2.25878e+00 4.48768e-01
H 5.29009e+00 3.79715e+00 4.13258e+00
H 2.84102e+00 1.71062e+00 2.79780e+00
H 5.73605e-01 3.69116e+00 2.09612e+00
H 3.01502e-01 2.84812e+00 3.44570e+00
H 2.97569e+00 3.20550e+00 5.72534e+00
H 3.47168e+00 4.08581e+00 5.07912e+00
H 5.37978e+00 5.48485e+00 2.65088e+00
H 6.36577e-01 1.66425e+00 5.46727e+00
H 4.63636e+00 2.24169e+00 4.87791e+00
H 1.65202e+00 8.35555e-01 3.68796e+00
H 3.59714e+00 1.38347e+00 1.91154e+00
H 3.36319e+00 4.88056e+00 4.96261e+00
H 2.77118e+00 2.83421e+00 3.06532e+00
H 5.27803e+00 6.65494e-01 1.10540e+00
H 1.95783e+00 3.53201e+00 2.59605e+00
H 2.31232e+00 4.94572e+00 4.30116e+00
H 4.66300e+00 5.93432e+00 5.94240e+00
H 1.97196e+00 2.86998e+00 1.40717e+00
H 4.32125e+00 5.02623e+00 1.25569e+00
H 4.45713e+00 1.60789e+00 2.36399e+00
H 1.58963e+00 5.78812e+00 5.12710e+00
H 1.90581e+00 3.06069e+00 4.66696e+00
H 7.13536e-01 2.96265e-01 4.20997e+00
H 3.90404e+00 6.39469e-01 5.03993e+00
H 4.76726e+00 2.74466e+00 9.79097e-01
H 3.34369e+00 3.48784e+00 9.59373e-01
H 2.43991e+00 6.55011e-01 2.15034e+00
H 1.03007e+00 4.83443e+00 3.57332e+00
H 3.85292e+00 1.16645e+00 7.48182e-01
H 4.02670e+00 3.11072e-01 1.46568e+00
H 1.08987e-01 1.77537e+00 4.47839e+00
H 1.57195e+00 3.04013e-01 1.46577e+00
H 4.48745e+00 2.10595e+00 1.70923e-01
H 3.48890e+00 2.63402e+00 1.06845e+00
H 5.10281e+00 5.51744e+00 5.28731e+00
H 4.84887e+00 2.35271e+00 1.78148e+00
H 5.38508e+00 3.92624e+00 5.82819e+00
H 2.41005e+00 1.85618e+00 4.33108e+00
H 5.29565e+00 1.09713e+00 4.03088e+00
H 3.58744e+00 2.82669e+00 5.83502e+00
H 4.29896e+00 5.16772e+00 2.03017e+00
H 2.98115e+00 1.03326e+00 5.82407e+00
H 3.08040e+00 5.52274e+00 5.19667e-01
H 1.22235e+00 2.99708e+00 3.46631e+00
H 5.73709e+00 3.35333e+00 4.09032e-01
H 3.85131e+00 4.69379e+00 4.81000e-01
H 1.76986e-01 1.20884e+00 5.58317e+00
H 1.05965e+00 5.83807e+00 1.67261e-02
H 4.05247e+00 4.60866e+00 3.04482e+00
H 2.19182e+00 3.89346e+00 3.93297e+00
H 1.72615e+00 1.46025e+00 1.20926e-01
H 5.22315e+00 1.62432e-01 4.82408e+00
H 5.45876e-01 4.71721e+00 4.68115e+00
H 3.34881e+00 2.23783e+00 4.55482e+00
H 4.59298e+00 3.76731e+00 1.30339e+00
H 2.23819e-01 5.84546e-01 3.63781e+00
H 8.40097e-02 5.28939e+00 7.93548e-01
H 3.57862e+00 1.95642e+00 5.14068e-01
H 4.71379e+00 4.50942e+00 4.77675e-02
H 2.21850e+00 4.73260e+00 9.99540e-01
H 1.40152e+00 2.23946e+00 2.26654e+00
H 4.43482e+00 3.12878e+00 3.52547e+00
H 2.19859e+00 3.97570e+00 5.35189e+00
H 1.50861e+00 5.24670e+00 2.19837e+00
H 3.85816e+00 4.01524e+00 1.78163e+00
H 2.57633e-01 5.44845e+00 5.17287e+00
H 1.40231e-01 3.26138e-01 3.03850e+00
H 1.99000e-01 3.94153e+00 3.81620e-01
H 8.77353e-01 3.11344e+00 5.87166e+00
H 2.04456e+00 3.82463e+00 1.33019e+00
H 2.76524e-02 1.38803e-01 5.77494e+00
H 1.04092e+00 3.75575e+00 4.49310e+00
H 4.52748e+00 1.42829e+00 4.93090e+00
H 3.53001e+00 5.71567e-02 2.32601e+00
H 5.85250e+00 8.28729e-01 4.72994e+00
H 5.12827e+00 2.97343e+00 2.49674e+00
H 1.65597e+00 4.74110e+00 5.59692e+00
H 4.78884e+00 3.37841e+00 1.78850e-01
H 4.57277e+00 5.74664e+00 3.61607e+00
H 1.04722e+00 2.01605e+00 3.82547e+00
H 5.12049e+00 4.11042e+00 2.68866e+00
H 2.86415e+00 8.17405e-01 4.11700e+00
